875
Atoms. Timestep: 0
Pd 402.0325 404.0650 402.0325
Pd 404.0650 402.0325 402.0325
Pd 406.0975 404.0650 402.0325
Pd 404.0650 406.0975 402.0325
Pd 406.0975 408.1300 402.0325
Pd 408.1300 406.0975 402.0325
Pd 410.1625 408.1300 402.0325
Pd 408.1300 410.1625 402.0325
Pd 410.1625 412.1950 402.0325
Pd 412.1950 410.1625 402.0325
Pd 414.2275 412.1950 402.0325
Pd 412.1950 414.2275 402.0325
Pd 414.2275 416.2600 402.0325
Pd 416.2600 414.2275 402.0325
Pd 418.2925 416.2600 402.0325
Pd 416.2600 418.2925 402.0325
Pd 418.2925 420.3250 402.0325
Pd 420.3250 418.2925 402.0325
Pd 422.3575 420.3250 402.0325
Pd 420.3250 422.3575 402.0325
Pd 422.3575 424.3900 402.0325
Pd 424.3900 422.3575 402.0325
Pd 426.4225 424.3900 402.0325
Pd 424.3900 426.4225 402.0325
Pd 426.4225 428.4550 402.0325
Pd 428.4550 426.4225 402.0325
Pd 430.4875 428.4550 402.0325
Pd 428.4550 430.4875 402.0325
Pd 402.0325 402.0325 404.0650
Pd 402.0325 406.0975 404.0650
Pd 402.0325 404.0650 406.0975
Pd 402.0325 408.1300 406.0975
Pd 406.0975 402.0325 404.0650
Pd 404.0650 402.0325 406.0975
Pd 404.0650 404.0650 404.0650
Pd 406.0975 406.0975 404.0650
Pd 406.0975 404.0650 406.0975
Pd 404.0650 406.0975 406.0975
Pd 404.0650 408.1300 404.0650
Pd 406.0975 410.1625 404.0650
Pd 406.0975 408.1300 406.0975
Pd 404.0650 410.1625 406.0975
Pd 406.0975 412.1950 406.0975
Pd 408.1300 402.0325 406.0975
Pd 408.1300 404.0650 404.0650
Pd 410.1625 406.0975 404.0650
Pd 410.1625 404.0650 406.0975
Pd 408.1300 406.0975 406.0975
Pd 408.1300 408.1300 404.0650
Pd 410.1625 410.1625 404.0650
Pd 410.1625 408.1300 406.0975
Pd 408.1300 410.1625 406.0975
Pd 408.1300 412.1950 404.0650
Pd 410.1625 414.2275 404.0650
Pd 410.1625 412.1950 406.0975
Pd 408.1300 414.2275 406.0975
Pd 410.1625 416.2600 406.0975
Pd 412.1950 406.0975 406.0975
Pd 412.1950 408.1300 404.0650
Pd 414.2275 410.1625 404.0650
Pd 414.2275 408.1300 406.0975
Pd 412.1950 410.1625 406.0975
Pd 412.1950 412.1950 404.0650
Pd 414.2275 414.2275 404.0650
Pd 414.2275 412.1950 406.0975
Pd 412.1950 414.2275 406.0975
Pd 412.1950 416.2600 404.0650
Pd 414.2275 418.2925 404.0650
Pd 414.2275 416.2600 406.0975
Pd 412.1950 418.2925 406.0975
Pd 414.2275 420.3250 406.0975
Pd 416.2600 410.1625 406.0975
Pd 416.2600 412.1950 404.0650
Pd 418.2925 414.2275 404.0650
Pd 418.2925 412.1950 406.0975
Pd 416.2600 414.2275 406.0975
Pd 416.2600 416.2600 404.0650
Pd 418.2925 418.2925 404.0650
Pd 418.2925 416.2600 406.0975
Pd 416.2600 418.2925 406.0975
Pd 416.2600 420.3250 404.0650
Pd 418.2925 422.3575 404.0650
Pd 418.2925 420.3250 406.0975
Pd 416.2600 422.3575 406.0975
Pd 418.2925 424.3900 406.0975
Pd 420.3250 414.2275 406.0975
Pd 420.3250 416.2600 404.0650
Pd 422.3575 418.2925 404.0650
Pd 422.3575 416.2600 406.0975
Pd 420.3250 418.2925 406.0975
Pd 420.3250 420.3250 404.0650
Pd 422.3575 422.3575 404.0650
Pd 422.3575 420.3250 406.0975
Pd 420.3250 422.3575 406.0975
Pd 420.3250 424.3900 404.0650
Pd 422.3575 426.4225 404.0650
Pd 422.3575 424.3900 406.0975
Pd 420.3250 426.4225 406.0975
Pd 422.3575 428.4550 406.0975
Pd 424.3900 418.2925 406.0975
Pd 424.3900 420.3250 404.0650
Pd 426.4225 422.3575 404.0650
Pd 426.4225 420.3250 406.0975
Pd 424.3900 422.3575 406.0975
Pd 424.3900 424.3900 404.0650
Pd 426.4225 426.4225 404.0650
Pd 426.4225 424.3900 406.0975
Pd 424.3900 426.4225 406.0975
Pd 424.3900 428.4550 404.0650
Pd 426.4225 430.4875 404.0650
Pd 426.4225 428.4550 406.0975
Pd 424.3900 430.4875 406.0975
Pd 428.4550 422.3575 406.0975
Pd 428.4550 424.3900 404.0650
Pd 430.4875 426.4225 404.0650
Pd 430.4875 424.3900 406.0975
Pd 428.4550 426.4225 406.0975
Pd 428.4550 428.4550 404.0650
Pd 430.4875 430.4875 404.0650
Pd 430.4875 428.4550 406.0975
Pd 428.4550 430.4875 406.0975
Pd 402.0325 406.0975 408.1300
Pd 402.0325 410.1625 408.1300
Pd 402.0325 408.1300 410.1625
Pd 402.0325 412.1950 410.1625
Pd 406.0975 402.0325 408.1300
Pd 404.0650 404.0650 408.1300
Pd 406.0975 406.0975 408.1300
Pd 406.0975 404.0650 410.1625
Pd 404.0650 406.0975 410.1625
Pd 404.0650 408.1300 408.1300
Pd 406.0975 410.1625 408.1300
Pd 406.0975 408.1300 410.1625
Pd 404.0650 410.1625 410.1625
Pd 404.0650 412.1950 408.1300
Pd 406.0975 414.2275 408.1300
Pd 406.0975 412.1950 410.1625
Pd 404.0650 414.2275 410.1625
Pd 406.0975 416.2600 410.1625
Pd 410.1625 402.0325 408.1300
Pd 408.1300 402.0325 410.1625
Pd 408.1300 404.0650 408.1300
Pd 410.1625 406.0975 408.1300
Pd 410.1625 404.0650 410.1625
Pd 408.1300 406.0975 410.1625
Pd 408.1300 408.1300 408.1300
Pd 410.1625 410.1625 408.1300
Pd 410.1625 408.1300 410.1625
Pd 408.1300 410.1625 410.1625
Pd 408.1300 412.1950 408.1300
Pd 410.1625 414.2275 408.1300
Pd 410.1625 412.1950 410.1625
Pd 408.1300 414.2275 410.1625
Pd 408.1300 416.2600 408.1300
Pd 410.1625 418.2925 408.1300
Pd 410.1625 416.2600 410.1625
Pd 408.1300 418.2925 410.1625
Pd 410.1625 420.3250 410.1625
Pd 412.1950 402.0325 410.1625
Pd 412.1950 404.0650 408.1300
Pd 414.2275 406.0975 408.1300
Pd 414.2275 404.0650 410.1625
Pd 412.1950 406.0975 410.1625
Pd 412.1950 408.1300 408.1300
Pd 414.2275 410.1625 408.1300
Pd 414.2275 408.1300 410.1625
Pd 412.1950 410.1625 410.1625
Pd 412.1950 412.1950 408.1300
Pd 414.2275 414.2275 408.1300
Pd 414.2275 412.1950 410.1625
Pd 412.1950 414.2275 410.1625
Pd 412.1950 416.2600 408.1300
Pd 414.2275 418.2925 408.1300
Pd 414.2275 416.2600 410.1625
Pd 412.1950 418.2925 410.1625
Pd 412.1950 420.3250 408.1300
Pd 414.2275 422.3575 408.1300
Pd 414.2275 420.3250 410.1625
Pd 412.1950 422.3575 410.1625
Pd 414.2275 424.3900 410.1625
Pd 416.2600 406.0975 410.1625
Pd 416.2600 408.1300 408.1300
Pd 418.2925 410.1625 408.1300
Pd 418.2925 408.1300 410.1625
Pd 416.2600 410.1625 410.1625
Pd 416.2600 412.1950 408.1300
Pd 418.2925 414.2275 408.1300
Pd 418.2925 412.1950 410.1625
Pd 416.2600 414.2275 410.1625
Pd 416.2600 416.2600 408.1300
Pd 418.2925 418.2925 408.1300
Pd 418.2925 416.2600 410.1625
Pd 416.2600 418.2925 410.1625
Pd 416.2600 420.3250 408.1300
Pd 418.2925 422.3575 408.1300
Pd 418.2925 420.3250 410.1625
Pd 416.2600 422.3575 410.1625
Pd 416.2600 424.3900 408.1300
Pd 418.2925 426.4225 408.1300
Pd 418.2925 424.3900 410.1625
Pd 416.2600 426.4225 410.1625
Pd 418.2925 428.4550 410.1625
Pd 420.3250 410.1625 410.1625
Pd 420.3250 412.1950 408.1300
Pd 422.3575 414.2275 408.1300
Pd 422.3575 412.1950 410.1625
Pd 420.3250 414.2275 410.1625
Pd 420.3250 416.2600 408.1300
Pd 422.3575 418.2925 408.1300
Pd 422.3575 416.2600 410.1625
Pd 420.3250 418.2925 410.1625
Pd 420.3250 420.3250 408.1300
Pd 422.3575 422.3575 408.1300
Pd 422.3575 420.3250 410.1625
Pd 420.3250 422.3575 410.1625
Pd 420.3250 424.3900 408.1300
Pd 422.3575 426.4225 408.1300
Pd 422.3575 424.3900 410.1625
Pd 420.3250 426.4225 410.1625
Pd 420.3250 428.4550 408.1300
Pd 422.3575 430.4875 408.1300
Pd 422.3575 428.4550 410.1625
Pd 420.3250 430.4875 410.1625
Pd 424.3900 414.2275 410.1625
Pd 424.3900 416.2600 408.1300
Pd 426.4225 418.2925 408.1300
Pd 426.4225 416.2600 410.1625
Pd 424.3900 418.2925 410.1625
Pd 424.3900 420.3250 408.1300
Pd 426.4225 422.3575 408.1300
Pd 426.4225 420.3250 410.1625
Pd 424.3900 422.3575 410.1625
Pd 424.3900 424.3900 408.1300
Pd 426.4225 426.4225 408.1300
Pd 426.4225 424.3900 410.1625
Pd 424.3900 426.4225 410.1625
Pd 424.3900 428.4550 408.1300
Pd 426.4225 430.4875 408.1300
Pd 426.4225 428.4550 410.1625
Pd 424.3900 430.4875 410.1625
Pd 428.4550 418.2925 410.1625
Pd 428.4550 420.3250 408.1300
Pd 430.4875 422.3575 408.1300
Pd 430.4875 420.3250 410.1625
Pd 428.4550 422.3575 410.1625
Pd 428.4550 424.3900 408.1300
Pd 430.4875 426.4225 408.1300
Pd 430.4875 424.3900 410.1625
Pd 428.4550 426.4225 410.1625
Pd 428.4550 428.4550 408.1300
Pd 402.0325 410.1625 412.1950
Pd 402.0325 414.2275 412.1950
Pd 402.0325 412.1950 414.2275
Pd 402.0325 416.2600 414.2275
Pd 406.0975 406.0975 412.1950
Pd 404.0650 408.1300 412.1950
Pd 406.0975 410.1625 412.1950
Pd 406.0975 408.1300 414.2275
Pd 404.0650 410.1625 414.2275
Pd 404.0650 412.1950 412.1950
Pd 406.0975 414.2275 412.1950
Pd 406.0975 412.1950 414.2275
Pd 404.0650 414.2275 414.2275
Pd 404.0650 416.2600 412.1950
Pd 406.0975 418.2925 412.1950
Pd 406.0975 416.2600 414.2275
Pd 404.0650 418.2925 414.2275
Pd 406.0975 420.3250 414.2275
Pd 410.1625 402.0325 412.1950
Pd 408.1300 404.0650 412.1950
Pd 410.1625 406.0975 412.1950
Pd 410.1625 404.0650 414.2275
Pd 408.1300 406.0975 414.2275
Pd 408.1300 408.1300 412.1950
Pd 410.1625 410.1625 412.1950
Pd 410.1625 408.1300 414.2275
Pd 408.1300 410.1625 414.2275
Pd 408.1300 412.1950 412.1950
Pd 410.1625 414.2275 412.1950
Pd 410.1625 412.1950 414.2275
Pd 408.1300 414.2275 414.2275
Pd 408.1300 416.2600 412.1950
Pd 410.1625 418.2925 412.1950
Pd 410.1625 416.2600 414.2275
Pd 408.1300 418.2925 414.2275
Pd 408.1300 420.3250 412.1950
Pd 410.1625 422.3575 412.1950
Pd 410.1625 420.3250 414.2275
Pd 408.1300 422.3575 414.2275
Pd 410.1625 424.3900 414.2275
Pd 414.2275 402.0325 412.1950
Pd 412.1950 402.0325 414.2275
Pd 412.1950 404.0650 412.1950
Pd 414.2275 406.0975 412.1950
Pd 414.2275 404.0650 414.2275
Pd 412.1950 406.0975 414.2275
Pd 412.1950 408.1300 412.1950
Pd 414.2275 410.1625 412.1950
Pd 414.2275 408.1300 414.2275
Pd 412.1950 410.1625 414.2275
Pd 412.1950 412.1950 412.1950
Pd 414.2275 414.2275 412.1950
Pd 414.2275 412.1950 414.2275
Pd 412.1950 414.2275 414.2275
Pd 412.1950 416.2600 412.1950
Pd 414.2275 418.2925 412.1950
Pd 414.2275 416.2600 414.2275
Pd 412.1950 418.2925 414.2275
Pd 412.1950 420.3250 412.1950
Pd 414.2275 422.3575 412.1950
Pd 414.2275 420.3250 414.2275
Pd 412.1950 422.3575 414.2275
Pd 412.1950 424.3900 412.1950
Pd 414.2275 426.4225 412.1950
Pd 414.2275 424.3900 414.2275
Pd 412.1950 426.4225 414.2275
Pd 414.2275 428.4550 414.2275
Pd 416.2600 402.0325 414.2275
Pd 416.2600 404.0650 412.1950
Pd 418.2925 406.0975 412.1950
Pd 418.2925 404.0650 414.2275
Pd 416.2600 406.0975 414.2275
Pd 416.2600 408.1300 412.1950
Pd 418.2925 410.1625 412.1950
Pd 418.2925 408.1300 414.2275
Pd 416.2600 410.1625 414.2275
Pd 416.2600 412.1950 412.1950
Pd 418.2925 414.2275 412.1950
Pd 418.2925 412.1950 414.2275
Pd 416.2600 414.2275 414.2275
Pd 416.2600 416.2600 412.1950
Pd 418.2925 418.2925 412.1950
Pd 418.2925 416.2600 414.2275
Pd 416.2600 418.2925 414.2275
Pd 416.2600 420.3250 412.1950
Pd 418.2925 422.3575 412.1950
Pd 418.2925 420.3250 414.2275
Pd 416.2600 422.3575 414.2275
Pd 416.2600 424.3900 412.1950
Pd 418.2925 426.4225 412.1950
Pd 418.2925 424.3900 414.2275
Pd 416.2600 426.4225 414.2275
Pd 416.2600 428.4550 412.1950
Pd 418.2925 430.4875 412.1950
Pd 418.2925 428.4550 414.2275
Pd 416.2600 430.4875 414.2275
Pd 420.3250 406.0975 414.2275
Pd 420.3250 408.1300 412.1950
Pd 422.3575 410.1625 412.1950
Pd 422.3575 408.1300 414.2275
Pd 420.3250 410.1625 414.2275
Pd 420.3250 412.1950 412.1950
Pd 422.3575 414.2275 412.1950
Pd 422.3575 412.1950 414.2275
Pd 420.3250 414.2275 414.2275
Pd 420.3250 416.2600 412.1950
Pd 422.3575 418.2925 412.1950
Pd 422.3575 416.2600 414.2275
Pd 420.3250 418.2925 414.2275
Pd 420.3250 420.3250 412.1950
Pd 422.3575 422.3575 412.1950
Pd 422.3575 420.3250 414.2275
Pd 420.3250 422.3575 414.2275
Pd 420.3250 424.3900 412.1950
Pd 422.3575 426.4225 412.1950
Pd 422.3575 424.3900 414.2275
Pd 420.3250 426.4225 414.2275
Pd 420.3250 428.4550 412.1950
Pd 422.3575 430.4875 412.1950
Pd 422.3575 428.4550 414.2275
Pd 420.3250 430.4875 414.2275
Pd 424.3900 410.1625 414.2275
Pd 424.3900 412.1950 412.1950
Pd 426.4225 414.2275 412.1950
Pd 426.4225 412.1950 414.2275
Pd 424.3900 414.2275 414.2275
Pd 424.3900 416.2600 412.1950
Pd 426.4225 418.2925 412.1950
Pd 426.4225 416.2600 414.2275
Pd 424.3900 418.2925 414.2275
Pd 424.3900 420.3250 412.1950
Pd 426.4225 422.3575 412.1950
Pd 426.4225 420.3250 414.2275
Pd 424.3900 422.3575 414.2275
Pd 424.3900 424.3900 412.1950
Pd 426.4225 426.4225 412.1950
Pd 426.4225 424.3900 414.2275
Pd 424.3900 426.4225 414.2275
Pd 424.3900 428.4550 412.1950
Pd 428.4550 414.2275 414.2275
Pd 428.4550 416.2600 412.1950
Pd 430.4875 418.2925 412.1950
Pd 430.4875 416.2600 414.2275
Pd 428.4550 418.2925 414.2275
Pd 428.4550 420.3250 412.1950
Pd 430.4875 422.3575 412.1950
Pd 430.4875 420.3250 414.2275
Pd 428.4550 422.3575 414.2275
Pd 428.4550 424.3900 412.1950
Pd 402.0325 414.2275 416.2600
Pd 402.0325 418.2925 416.2600
Pd 402.0325 416.2600 418.2925
Pd 402.0325 420.3250 418.2925
Pd 406.0975 410.1625 416.2600
Pd 404.0650 412.1950 416.2600
Pd 406.0975 414.2275 416.2600
Pd 406.0975 412.1950 418.2925
Pd 404.0650 414.2275 418.2925
Pd 404.0650 416.2600 416.2600
Pd 406.0975 418.2925 416.2600
Pd 406.0975 416.2600 418.2925
Pd 404.0650 418.2925 418.2925
Pd 404.0650 420.3250 416.2600
Pd 406.0975 422.3575 416.2600
Pd 406.0975 420.3250 418.2925
Pd 404.0650 422.3575 418.2925
Pd 406.0975 424.3900 418.2925
Pd 410.1625 406.0975 416.2600
Pd 408.1300 408.1300 416.2600
Pd 410.1625 410.1625 416.2600
Pd 410.1625 408.1300 418.2925
Pd 408.1300 410.1625 418.2925
Pd 408.1300 412.1950 416.2600
Pd 410.1625 414.2275 416.2600
Pd 410.1625 412.1950 418.2925
Pd 408.1300 414.2275 418.2925
Pd 408.1300 416.2600 416.2600
Pd 410.1625 418.2925 416.2600
Pd 410.1625 416.2600 418.2925
Pd 408.1300 418.2925 418.2925
Pd 408.1300 420.3250 416.2600
Pd 410.1625 422.3575 416.2600
Pd 410.1625 420.3250 418.2925
Pd 408.1300 422.3575 418.2925
Pd 408.1300 424.3900 416.2600
Pd 410.1625 426.4225 416.2600
Pd 410.1625 424.3900 418.2925
Pd 408.1300 426.4225 418.2925
Pd 410.1625 428.4550 418.2925
Pd 414.2275 402.0325 416.2600
Pd 412.1950 404.0650 416.2600
Pd 414.2275 406.0975 416.2600
Pd 414.2275 404.0650 418.2925
Pd 412.1950 406.0975 418.2925
Pd 412.1950 408.1300 416.2600
Pd 414.2275 410.1625 416.2600
Pd 414.2275 408.1300 418.2925
Pd 412.1950 410.1625 418.2925
Pd 412.1950 412.1950 416.2600
Pd 414.2275 414.2275 416.2600
Pd 414.2275 412.1950 418.2925
Pd 412.1950 414.2275 418.2925
Pd 412.1950 416.2600 416.2600
Pd 414.2275 418.2925 416.2600
Pd 414.2275 416.2600 418.2925
Pd 412.1950 418.2925 418.2925
Pd 412.1950 420.3250 416.2600
Pd 414.2275 422.3575 416.2600
Pd 414.2275 420.3250 418.2925
Pd 412.1950 422.3575 418.2925
Pd 412.1950 424.3900 416.2600
Pd 414.2275 426.4225 416.2600
Pd 414.2275 424.3900 418.2925
Pd 412.1950 426.4225 418.2925
Pd 412.1950 428.4550 416.2600
Pd 414.2275 430.4875 416.2600
Pd 414.2275 428.4550 418.2925
Pd 412.1950 430.4875 418.2925
Pd 418.2925 402.0325 416.2600
Pd 416.2600 402.0325 418.2925
Pd 416.2600 404.0650 416.2600
Pd 418.2925 406.0975 416.2600
Pd 418.2925 404.0650 418.2925
Pd 416.2600 406.0975 418.2925
Pd 416.2600 408.1300 416.2600
Pd 418.2925 410.1625 416.2600
Pd 418.2925 408.1300 418.2925
Pd 416.2600 410.1625 418.2925
Pd 416.2600 412.1950 416.2600
Pd 418.2925 414.2275 416.2600
Pd 418.2925 412.1950 418.2925
Pd 416.2600 414.2275 418.2925
Pd 416.2600 416.2600 416.2600
Pd 418.2925 418.2925 416.2600
Pd 418.2925 416.2600 418.2925
Pd 416.2600 418.2925 418.2925
Pd 416.2600 420.3250 416.2600
Pd 418.2925 422.3575 416.2600
Pd 418.2925 420.3250 418.2925
Pd 416.2600 422.3575 418.2925
Pd 416.2600 424.3900 416.2600
Pd 418.2925 426.4225 416.2600
Pd 418.2925 424.3900 418.2925
Pd 416.2600 426.4225 418.2925
Pd 416.2600 428.4550 416.2600
Pd 418.2925 430.4875 416.2600
Pd 418.2925 428.4550 418.2925
Pd 416.2600 430.4875 418.2925
Pd 420.3250 402.0325 418.2925
Pd 420.3250 404.0650 416.2600
Pd 422.3575 406.0975 416.2600
Pd 422.3575 404.0650 418.2925
Pd 420.3250 406.0975 418.2925
Pd 420.3250 408.1300 416.2600
Pd 422.3575 410.1625 416.2600
Pd 422.3575 408.1300 418.2925
Pd 420.3250 410.1625 418.2925
Pd 420.3250 412.1950 416.2600
Pd 422.3575 414.2275 416.2600
Pd 422.3575 412.1950 418.2925
Pd 420.3250 414.2275 418.2925
Pd 420.3250 416.2600 416.2600
Pd 422.3575 418.2925 416.2600
Pd 422.3575 416.2600 418.2925
Pd 420.3250 418.2925 418.2925
Pd 420.3250 420.3250 416.2600
Pd 422.3575 422.3575 416.2600
Pd 422.3575 420.3250 418.2925
Pd 420.3250 422.3575 418.2925
Pd 420.3250 424.3900 416.2600
Pd 422.3575 426.4225 416.2600
Pd 422.3575 424.3900 418.2925
Pd 420.3250 426.4225 418.2925
Pd 420.3250 428.4550 416.2600
Pd 424.3900 406.0975 418.2925
Pd 424.3900 408.1300 416.2600
Pd 426.4225 410.1625 416.2600
Pd 426.4225 408.1300 418.2925
Pd 424.3900 410.1625 418.2925
Pd 424.3900 412.1950 416.2600
Pd 426.4225 414.2275 416.2600
Pd 426.4225 412.1950 418.2925
Pd 424.3900 414.2275 418.2925
Pd 424.3900 416.2600 416.2600
Pd 426.4225 418.2925 416.2600
Pd 426.4225 416.2600 418.2925
Pd 424.3900 418.2925 418.2925
Pd 424.3900 420.3250 416.2600
Pd 426.4225 422.3575 416.2600
Pd 426.4225 420.3250 418.2925
Pd 424.3900 422.3575 418.2925
Pd 424.3900 424.3900 416.2600
Pd 428.4550 410.1625 418.2925
Pd 428.4550 412.1950 416.2600
Pd 430.4875 414.2275 416.2600
Pd 430.4875 412.1950 418.2925
Pd 428.4550 414.2275 418.2925
Pd 428.4550 416.2600 416.2600
Pd 430.4875 418.2925 416.2600
Pd 430.4875 416.2600 418.2925
Pd 428.4550 418.2925 418.2925
Pd 428.4550 420.3250 416.2600
Pd 402.0325 418.2925 420.3250
Pd 402.0325 422.3575 420.3250
Pd 402.0325 420.3250 422.3575
Pd 402.0325 424.3900 422.3575
Pd 406.0975 414.2275 420.3250
Pd 404.0650 416.2600 420.3250
Pd 406.0975 418.2925 420.3250
Pd 406.0975 416.2600 422.3575
Pd 404.0650 418.2925 422.3575
Pd 404.0650 420.3250 420.3250
Pd 406.0975 422.3575 420.3250
Pd 406.0975 420.3250 422.3575
Pd 404.0650 422.3575 422.3575
Pd 404.0650 424.3900 420.3250
Pd 406.0975 426.4225 420.3250
Pd 406.0975 424.3900 422.3575
Pd 404.0650 426.4225 422.3575
Pd 406.0975 428.4550 422.3575
Pd 410.1625 410.1625 420.3250
Pd 408.1300 412.1950 420.3250
Pd 410.1625 414.2275 420.3250
Pd 410.1625 412.1950 422.3575
Pd 408.1300 414.2275 422.3575
Pd 408.1300 416.2600 420.3250
Pd 410.1625 418.2925 420.3250
Pd 410.1625 416.2600 422.3575
Pd 408.1300 418.2925 422.3575
Pd 408.1300 420.3250 420.3250
Pd 410.1625 422.3575 420.3250
Pd 410.1625 420.3250 422.3575
Pd 408.1300 422.3575 422.3575
Pd 408.1300 424.3900 420.3250
Pd 410.1625 426.4225 420.3250
Pd 410.1625 424.3900 422.3575
Pd 408.1300 426.4225 422.3575
Pd 408.1300 428.4550 420.3250
Pd 410.1625 430.4875 420.3250
Pd 410.1625 428.4550 422.3575
Pd 408.1300 430.4875 422.3575
Pd 414.2275 406.0975 420.3250
Pd 412.1950 408.1300 420.3250
Pd 414.2275 410.1625 420.3250
Pd 414.2275 408.1300 422.3575
Pd 412.1950 410.1625 422.3575
Pd 412.1950 412.1950 420.3250
Pd 414.2275 414.2275 420.3250
Pd 414.2275 412.1950 422.3575
Pd 412.1950 414.2275 422.3575
Pd 412.1950 416.2600 420.3250
Pd 414.2275 418.2925 420.3250
Pd 414.2275 416.2600 422.3575
Pd 412.1950 418.2925 422.3575
Pd 412.1950 420.3250 420.3250
Pd 414.2275 422.3575 420.3250
Pd 414.2275 420.3250 422.3575
Pd 412.1950 422.3575 422.3575
Pd 412.1950 424.3900 420.3250
Pd 414.2275 426.4225 420.3250
Pd 414.2275 424.3900 422.3575
Pd 412.1950 426.4225 422.3575
Pd 412.1950 428.4550 420.3250
Pd 414.2275 430.4875 420.3250
Pd 414.2275 428.4550 422.3575
Pd 412.1950 430.4875 422.3575
Pd 418.2925 402.0325 420.3250
Pd 416.2600 404.0650 420.3250
Pd 418.2925 406.0975 420.3250
Pd 418.2925 404.0650 422.3575
Pd 416.2600 406.0975 422.3575
Pd 416.2600 408.1300 420.3250
Pd 418.2925 410.1625 420.3250
Pd 418.2925 408.1300 422.3575
Pd 416.2600 410.1625 422.3575
Pd 416.2600 412.1950 420.3250
Pd 418.2925 414.2275 420.3250
Pd 418.2925 412.1950 422.3575
Pd 416.2600 414.2275 422.3575
Pd 416.2600 416.2600 420.3250
Pd 418.2925 418.2925 420.3250
Pd 418.2925 416.2600 422.3575
Pd 416.2600 418.2925 422.3575
Pd 416.2600 420.3250 420.3250
Pd 418.2925 422.3575 420.3250
Pd 418.2925 420.3250 422.3575
Pd 416.2600 422.3575 422.3575
Pd 416.2600 424.3900 420.3250
Pd 418.2925 426.4225 420.3250
Pd 418.2925 424.3900 422.3575
Pd 416.2600 426.4225 422.3575
Pd 416.2600 428.4550 420.3250
Pd 422.3575 402.0325 420.3250
Pd 420.3250 402.0325 422.3575
Pd 420.3250 404.0650 420.3250
Pd 422.3575 406.0975 420.3250
Pd 422.3575 404.0650 422.3575
Pd 420.3250 406.0975 422.3575
Pd 420.3250 408.1300 420.3250
Pd 422.3575 410.1625 420.3250
Pd 422.3575 408.1300 422.3575
Pd 420.3250 410.1625 422.3575
Pd 420.3250 412.1950 420.3250
Pd 422.3575 414.2275 420.3250
Pd 422.3575 412.1950 422.3575
Pd 420.3250 414.2275 422.3575
Pd 420.3250 416.2600 420.3250
Pd 422.3575 418.2925 420.3250
Pd 422.3575 416.2600 422.3575
Pd 420.3250 418.2925 422.3575
Pd 420.3250 420.3250 420.3250
Pd 422.3575 422.3575 420.3250
Pd 422.3575 420.3250 422.3575
Pd 420.3250 422.3575 422.3575
Pd 420.3250 424.3900 420.3250
Pd 424.3900 402.0325 422.3575
Pd 424.3900 404.0650 420.3250
Pd 426.4225 406.0975 420.3250
Pd 426.4225 404.0650 422.3575
Pd 424.3900 406.0975 422.3575
Pd 424.3900 408.1300 420.3250
Pd 426.4225 410.1625 420.3250
Pd 426.4225 408.1300 422.3575
Pd 424.3900 410.1625 422.3575
Pd 424.3900 412.1950 420.3250
Pd 426.4225 414.2275 420.3250
Pd 426.4225 412.1950 422.3575
Pd 424.3900 414.2275 422.3575
Pd 424.3900 416.2600 420.3250
Pd 426.4225 418.2925 420.3250
Pd 426.4225 416.2600 422.3575
Pd 424.3900 418.2925 422.3575
Pd 424.3900 420.3250 420.3250
Pd 428.4550 406.0975 422.3575
Pd 428.4550 408.1300 420.3250
Pd 430.4875 410.1625 420.3250
Pd 430.4875 408.1300 422.3575
Pd 428.4550 410.1625 422.3575
Pd 428.4550 412.1950 420.3250
Pd 430.4875 414.2275 420.3250
Pd 430.4875 412.1950 422.3575
Pd 428.4550 414.2275 422.3575
Pd 428.4550 416.2600 420.3250
Pd 402.0325 422.3575 424.3900
Pd 402.0325 426.4225 424.3900
Pd 402.0325 424.3900 426.4225
Pd 402.0325 428.4550 426.4225
Pd 406.0975 418.2925 424.3900
Pd 404.0650 420.3250 424.3900
Pd 406.0975 422.3575 424.3900
Pd 406.0975 420.3250 426.4225
Pd 404.0650 422.3575 426.4225
Pd 404.0650 424.3900 424.3900
Pd 406.0975 426.4225 424.3900
Pd 406.0975 424.3900 426.4225
Pd 404.0650 426.4225 426.4225
Pd 404.0650 428.4550 424.3900
Pd 406.0975 430.4875 424.3900
Pd 406.0975 428.4550 426.4225
Pd 404.0650 430.4875 426.4225
Pd 410.1625 414.2275 424.3900
Pd 408.1300 416.2600 424.3900
Pd 410.1625 418.2925 424.3900
Pd 410.1625 416.2600 426.4225
Pd 408.1300 418.2925 426.4225
Pd 408.1300 420.3250 424.3900
Pd 410.1625 422.3575 424.3900
Pd 410.1625 420.3250 426.4225
Pd 408.1300 422.3575 426.4225
Pd 408.1300 424.3900 424.3900
Pd 410.1625 426.4225 424.3900
Pd 410.1625 424.3900 426.4225
Pd 408.1300 426.4225 426.4225
Pd 408.1300 428.4550 424.3900
Pd 410.1625 430.4875 424.3900
Pd 410.1625 428.4550 426.4225
Pd 408.1300 430.4875 426.4225
Pd 414.2275 410.1625 424.3900
Pd 412.1950 412.1950 424.3900
Pd 414.2275 414.2275 424.3900
Pd 414.2275 412.1950 426.4225
Pd 412.1950 414.2275 426.4225
Pd 412.1950 416.2600 424.3900
Pd 414.2275 418.2925 424.3900
Pd 414.2275 416.2600 426.4225
Pd 412.1950 418.2925 426.4225
Pd 412.1950 420.3250 424.3900
Pd 414.2275 422.3575 424.3900
Pd 414.2275 420.3250 426.4225
Pd 412.1950 422.3575 426.4225
Pd 412.1950 424.3900 424.3900
Pd 414.2275 426.4225 424.3900
Pd 414.2275 424.3900 426.4225
Pd 412.1950 426.4225 426.4225
Pd 412.1950 428.4550 424.3900
Pd 418.2925 406.0975 424.3900
Pd 416.2600 408.1300 424.3900
Pd 418.2925 410.1625 424.3900
Pd 418.2925 408.1300 426.4225
Pd 416.2600 410.1625 426.4225
Pd 416.2600 412.1950 424.3900
Pd 418.2925 414.2275 424.3900
Pd 418.2925 412.1950 426.4225
Pd 416.2600 414.2275 426.4225
Pd 416.2600 416.2600 424.3900
Pd 418.2925 418.2925 424.3900
Pd 418.2925 416.2600 426.4225
Pd 416.2600 418.2925 426.4225
Pd 416.2600 420.3250 424.3900
Pd 418.2925 422.3575 424.3900
Pd 418.2925 420.3250 426.4225
Pd 416.2600 422.3575 426.4225
Pd 416.2600 424.3900 424.3900
Pd 422.3575 402.0325 424.3900
Pd 420.3250 404.0650 424.3900
Pd 422.3575 406.0975 424.3900
Pd 422.3575 404.0650 426.4225
Pd 420.3250 406.0975 426.4225
Pd 420.3250 408.1300 424.3900
Pd 422.3575 410.1625 424.3900
Pd 422.3575 408.1300 426.4225
Pd 420.3250 410.1625 426.4225
Pd 420.3250 412.1950 424.3900
Pd 422.3575 414.2275 424.3900
Pd 422.3575 412.1950 426.4225
Pd 420.3250 414.2275 426.4225
Pd 420.3250 416.2600 424.3900
Pd 422.3575 418.2925 424.3900
Pd 422.3575 416.2600 426.4225
Pd 420.3250 418.2925 426.4225
Pd 420.3250 420.3250 424.3900
Pd 426.4225 402.0325 424.3900
Pd 424.3900 402.0325 426.4225
Pd 424.3900 404.0650 424.3900
Pd 426.4225 406.0975 424.3900
Pd 426.4225 404.0650 426.4225
Pd 424.3900 406.0975 426.4225
Pd 424.3900 408.1300 424.3900
Pd 426.4225 410.1625 424.3900
Pd 426.4225 408.1300 426.4225
Pd 424.3900 410.1625 426.4225
Pd 424.3900 412.1950 424.3900
Pd 426.4225 414.2275 424.3900
Pd 426.4225 412.1950 426.4225
Pd 424.3900 414.2275 426.4225
Pd 424.3900 416.2600 424.3900
Pd 428.4550 402.0325 426.4225
Pd 428.4550 404.0650 424.3900
Pd 430.4875 406.0975 424.3900
Pd 430.4875 404.0650 426.4225
Pd 428.4550 406.0975 426.4225
Pd 428.4550 408.1300 424.3900
Pd 430.4875 410.1625 424.3900
Pd 430.4875 408.1300 426.4225
Pd 428.4550 410.1625 426.4225
Pd 428.4550 412.1950 424.3900
Pd 402.0325 426.4225 428.4550
Pd 402.0325 430.4875 428.4550
Pd 402.0325 428.4550 430.4875
Pd 406.0975 422.3575 428.4550
Pd 404.0650 424.3900 428.4550
Pd 406.0975 426.4225 428.4550
Pd 406.0975 424.3900 430.4875
Pd 404.0650 426.4225 430.4875
Pd 404.0650 428.4550 428.4550
Pd 406.0975 430.4875 428.4550
Pd 406.0975 428.4550 430.4875
Pd 404.0650 430.4875 430.4875
Pd 410.1625 418.2925 428.4550
Pd 408.1300 420.3250 428.4550
Pd 410.1625 422.3575 428.4550
Pd 410.1625 420.3250 430.4875
Pd 408.1300 422.3575 430.4875
Pd 408.1300 424.3900 428.4550
Pd 410.1625 426.4225 428.4550
Pd 410.1625 424.3900 430.4875
Pd 408.1300 426.4225 430.4875
Pd 408.1300 428.4550 428.4550
Pd 414.2275 414.2275 428.4550
Pd 412.1950 416.2600 428.4550
Pd 414.2275 418.2925 428.4550
Pd 414.2275 416.2600 430.4875
Pd 412.1950 418.2925 430.4875
Pd 412.1950 420.3250 428.4550
Pd 414.2275 422.3575 428.4550
Pd 414.2275 420.3250 430.4875
Pd 412.1950 422.3575 430.4875
Pd 412.1950 424.3900 428.4550
Pd 418.2925 410.1625 428.4550
Pd 416.2600 412.1950 428.4550
Pd 418.2925 414.2275 428.4550
Pd 418.2925 412.1950 430.4875
Pd 416.2600 414.2275 430.4875
Pd 416.2600 416.2600 428.4550
Pd 418.2925 418.2925 428.4550
Pd 418.2925 416.2600 430.4875
Pd 416.2600 418.2925 430.4875
Pd 416.2600 420.3250 428.4550
Pd 422.3575 406.0975 428.4550
Pd 420.3250 408.1300 428.4550
Pd 422.3575 410.1625 428.4550
Pd 422.3575 408.1300 430.4875
Pd 420.3250 410.1625 430.4875
Pd 420.3250 412.1950 428.4550
Pd 422.3575 414.2275 428.4550
Pd 422.3575 412.1950 430.4875
Pd 420.3250 414.2275 430.4875
Pd 420.3250 416.2600 428.4550
Pd 426.4225 402.0325 428.4550
Pd 424.3900 404.0650 428.4550
Pd 426.4225 406.0975 428.4550
Pd 426.4225 404.0650 430.4875
Pd 424.3900 406.0975 430.4875
Pd 424.3900 408.1300 428.4550
Pd 426.4225 410.1625 428.4550
Pd 426.4225 408.1300 430.4875
Pd 424.3900 410.1625 430.4875
Pd 424.3900 412.1950 428.4550
Pd 430.4875 402.0325 428.4550
Pd 428.4550 402.0325 430.4875
Pd 428.4550 404.0650 428.4550
Pd 430.4875 406.0975 428.4550
Pd 430.4875 404.0650 430.4875
Pd 428.4550 406.0975 430.4875
Pd 428.4550 408.1300 428.4550
